<?xml version="1.0" encoding="UTF-8"?>

<!-- generated on 2021-11-02 16:49:29 by Eclipse SUMO GUI Version 1.10.0
<configuration xmlns:xsi="http://www.w3.org/2001/XMLSchema-instance" xsi:noNamespaceSchemaLocation="http://sumo.dlr.de/xsd/sumoConfiguration.xsd">

    <input>
        <net-file value="data/T.net.xml"/>
        <route-files value="data/T.rou.xml"/>
        <additional-files value="data/T.add.xml"/>
    </input>

    <output>
        <full-output value="data/results.xml"/>
        <tripinfo-output value="tripinfo.xml"/>
    </output>

    <traci_server>
        <remote-port value="53135"/>
    </traci_server>

</configuration>
-->

<tripinfos xmlns:xsi="http://www.w3.org/2001/XMLSchema-instance" xsi:noNamespaceSchemaLocation="http://sumo.dlr.de/xsd/tripinfo_file.xsd">
    <tripinfo id="flow_0.0" depart="0.00" departLane="gneE20_1" departPos="5.10" departSpeed="0.00" departDelay="0.00" arrival="15.00" arrivalLane="-gneE19_1" arrivalPos="100.00" arrivalSpeed="25.85" duration="15.00" routeLength="215.70" waitingTime="0.00" waitingCount="0" stopTime="0.00" timeLoss="6.12" rerouteNo="0" devices="tripinfo_flow_0.0 routing_flow_0.0" vType="DEFAULT_VEHTYPE" speedFactor="0.87" vaporized=""/>
    <tripinfo id="flow_3.0" depart="3.00" departLane="gneE19_1" departPos="5.10" departSpeed="0.00" departDelay="3.00" arrival="22.00" arrivalLane="-gneE20_2" arrivalPos="100.00" arrivalSpeed="24.67" duration="19.00" routeLength="215.70" waitingTime="0.00" waitingCount="0" stopTime="0.00" timeLoss="11.15" rerouteNo="0" devices="tripinfo_flow_3.0 routing_flow_3.0" vType="DEFAULT_VEHTYPE" speedFactor="1.01" vaporized=""/>
    <tripinfo id="flow_8.0" depart="5.00" departLane="gneE20_1" departPos="5.10" departSpeed="0.00" departDelay="5.00" arrival="22.00" arrivalLane="-gneE19_1" arrivalPos="100.00" arrivalSpeed="26.06" duration="17.00" routeLength="215.70" waitingTime="0.00" waitingCount="0" stopTime="0.00" timeLoss="9.61" rerouteNo="0" devices="tripinfo_flow_8.0 routing_flow_8.0" vType="DEFAULT_VEHTYPE" speedFactor="1.07" vaporized=""/>
    <tripinfo id="flow_2.0" depart="0.00" departLane="gneE19_1" departPos="5.10" departSpeed="0.00" departDelay="0.00" arrival="24.00" arrivalLane="-gneE21_1" arrivalPos="100.00" arrivalSpeed="20.42" duration="24.00" routeLength="203.93" waitingTime="2.00" waitingCount="1" stopTime="0.00" timeLoss="15.86" rerouteNo="0" devices="tripinfo_flow_2.0 routing_flow_2.0" vType="DEFAULT_VEHTYPE" speedFactor="1.03" vaporized=""/>
    <tripinfo id="flow_4.0" depart="6.00" departLane="gneE19_1" departPos="5.10" departSpeed="0.00" departDelay="6.00" arrival="24.00" arrivalLane="-gneE20_1" arrivalPos="100.00" arrivalSpeed="25.17" duration="18.00" routeLength="215.70" waitingTime="0.00" waitingCount="0" stopTime="0.00" timeLoss="10.95" rerouteNo="0" devices="tripinfo_flow_4.0 routing_flow_4.0" vType="DEFAULT_VEHTYPE" speedFactor="1.11" vaporized=""/>
    <tripinfo id="flow_0.1" depart="8.00" departLane="gneE20_1" departPos="5.10" departSpeed="0.00" departDelay="6.00" arrival="25.00" arrivalLane="-gneE19_1" arrivalPos="100.00" arrivalSpeed="25.76" duration="17.00" routeLength="215.70" waitingTime="0.00" waitingCount="0" stopTime="0.00" timeLoss="9.40" rerouteNo="0" devices="tripinfo_flow_0.1 routing_flow_0.1" vType="DEFAULT_VEHTYPE" speedFactor="1.01" vaporized=""/>
    <tripinfo id="flow_3.1" depart="12.00" departLane="gneE19_1" departPos="5.10" departSpeed="0.00" departDelay="10.00" arrival="29.00" arrivalLane="-gneE20_2" arrivalPos="100.00" arrivalSpeed="24.70" duration="17.00" routeLength="215.70" waitingTime="0.00" waitingCount="0" stopTime="0.00" timeLoss="9.81" rerouteNo="0" devices="tripinfo_flow_3.1 routing_flow_3.1" vType="DEFAULT_VEHTYPE" speedFactor="1.05" vaporized=""/>
    <tripinfo id="flow_2.1" depart="9.00" departLane="gneE19_1" departPos="5.10" departSpeed="0.00" departDelay="7.00" arrival="30.00" arrivalLane="-gneE21_1" arrivalPos="100.00" arrivalSpeed="19.90" duration="21.00" routeLength="203.93" waitingTime="0.00" waitingCount="0" stopTime="0.00" timeLoss="11.88" rerouteNo="0" devices="tripinfo_flow_2.1 routing_flow_2.1" vType="DEFAULT_VEHTYPE" speedFactor="0.91" vaporized=""/>
    <tripinfo id="flow_4.1" depart="15.00" departLane="gneE19_1" departPos="5.10" departSpeed="0.00" departDelay="13.00" arrival="31.00" arrivalLane="-gneE20_2" arrivalPos="100.00" arrivalSpeed="27.62" duration="16.00" routeLength="215.70" waitingTime="0.00" waitingCount="0" stopTime="0.00" timeLoss="7.99" rerouteNo="0" devices="tripinfo_flow_4.1 routing_flow_4.1" vType="DEFAULT_VEHTYPE" speedFactor="1.00" vaporized=""/>
    <tripinfo id="flow_8.1" depart="15.00" departLane="gneE20_1" departPos="5.10" departSpeed="0.00" departDelay="13.00" arrival="32.00" arrivalLane="-gneE19_1" arrivalPos="100.00" arrivalSpeed="23.50" duration="17.00" routeLength="215.70" waitingTime="0.00" waitingCount="0" stopTime="0.00" timeLoss="9.95" rerouteNo="0" devices="tripinfo_flow_8.1 routing_flow_8.1" vType="DEFAULT_VEHTYPE" speedFactor="1.03" vaporized=""/>
    <tripinfo id="flow_0.2" depart="18.00" departLane="gneE20_1" departPos="5.10" departSpeed="0.00" departDelay="14.00" arrival="35.00" arrivalLane="-gneE19_1" arrivalPos="100.00" arrivalSpeed="24.43" duration="17.00" routeLength="215.70" waitingTime="0.00" waitingCount="0" stopTime="0.00" timeLoss="9.27" rerouteNo="0" devices="tripinfo_flow_0.2 routing_flow_0.2" vType="DEFAULT_VEHTYPE" speedFactor="0.93" vaporized=""/>
    <tripinfo id="flow_1.0" depart="3.00" departLane="gneE20_1" departPos="5.10" departSpeed="0.00" departDelay="3.00" arrival="36.00" arrivalLane="-gneE21_2" arrivalPos="100.00" arrivalSpeed="20.45" duration="33.00" routeLength="214.26" waitingTime="10.00" waitingCount="1" stopTime="0.00" timeLoss="23.37" rerouteNo="0" devices="tripinfo_flow_1.0 routing_flow_1.0" vType="DEFAULT_VEHTYPE" speedFactor="0.90" vaporized=""/>
    <tripinfo id="flow_2.2" depart="18.00" departLane="gneE19_1" departPos="5.10" departSpeed="0.00" departDelay="14.00" arrival="39.00" arrivalLane="-gneE21_1" arrivalPos="100.00" arrivalSpeed="20.76" duration="21.00" routeLength="203.93" waitingTime="0.00" waitingCount="0" stopTime="0.00" timeLoss="12.69" rerouteNo="0" devices="tripinfo_flow_2.2 routing_flow_2.2" vType="DEFAULT_VEHTYPE" speedFactor="1.08" vaporized=""/>
    <tripinfo id="flow_3.2" depart="21.00" departLane="gneE19_1" departPos="5.10" departSpeed="0.00" departDelay="17.00" arrival="39.00" arrivalLane="-gneE20_1" arrivalPos="100.00" arrivalSpeed="23.11" duration="18.00" routeLength="215.70" waitingTime="0.00" waitingCount="0" stopTime="0.00" timeLoss="10.56" rerouteNo="0" devices="tripinfo_flow_3.2 routing_flow_3.2" vType="DEFAULT_VEHTYPE" speedFactor="1.01" vaporized=""/>
    <tripinfo id="flow_4.2" depart="24.00" departLane="gneE19_1" departPos="5.10" departSpeed="0.00" departDelay="20.00" arrival="41.00" arrivalLane="-gneE20_1" arrivalPos="100.00" arrivalSpeed="23.52" duration="17.00" routeLength="215.70" waitingTime="0.00" waitingCount="0" stopTime="0.00" timeLoss="7.45" rerouteNo="0" devices="tripinfo_flow_4.2 routing_flow_4.2" vType="DEFAULT_VEHTYPE" speedFactor="0.83" vaporized=""/>
    <tripinfo id="flow_8.2" depart="25.00" departLane="gneE20_1" departPos="5.10" departSpeed="0.00" departDelay="21.00" arrival="42.00" arrivalLane="-gneE19_1" arrivalPos="100.00" arrivalSpeed="24.96" duration="17.00" routeLength="215.70" waitingTime="0.00" waitingCount="0" stopTime="0.00" timeLoss="10.48" rerouteNo="0" devices="tripinfo_flow_8.2 routing_flow_8.2" vType="DEFAULT_VEHTYPE" speedFactor="1.16" vaporized=""/>
    <tripinfo id="flow_0.3" depart="28.00" departLane="gneE20_1" departPos="5.10" departSpeed="0.00" departDelay="22.00" arrival="45.00" arrivalLane="-gneE19_1" arrivalPos="100.00" arrivalSpeed="23.60" duration="17.00" routeLength="215.70" waitingTime="0.00" waitingCount="0" stopTime="0.00" timeLoss="8.68" rerouteNo="0" devices="tripinfo_flow_0.3 routing_flow_0.3" vType="DEFAULT_VEHTYPE" speedFactor="0.94" vaporized=""/>
    <tripinfo id="flow_1.1" depart="12.00" departLane="gneE20_1" departPos="5.10" departSpeed="0.00" departDelay="10.00" arrival="46.00" arrivalLane="-gneE21_2" arrivalPos="100.00" arrivalSpeed="19.53" duration="34.00" routeLength="214.26" waitingTime="7.00" waitingCount="2" stopTime="0.00" timeLoss="24.70" rerouteNo="0" devices="tripinfo_flow_1.1 routing_flow_1.1" vType="DEFAULT_VEHTYPE" speedFactor="0.93" vaporized=""/>
    <tripinfo id="flow_2.3" depart="27.00" departLane="gneE19_1" departPos="5.10" departSpeed="0.00" departDelay="21.00" arrival="48.00" arrivalLane="-gneE21_1" arrivalPos="100.00" arrivalSpeed="19.97" duration="21.00" routeLength="203.93" waitingTime="0.00" waitingCount="0" stopTime="0.00" timeLoss="12.75" rerouteNo="0" devices="tripinfo_flow_2.3 routing_flow_2.3" vType="DEFAULT_VEHTYPE" speedFactor="0.99" vaporized=""/>
    <tripinfo id="flow_3.3" depart="30.00" departLane="gneE19_1" departPos="5.10" departSpeed="0.00" departDelay="24.00" arrival="48.00" arrivalLane="-gneE20_1" arrivalPos="100.00" arrivalSpeed="25.79" duration="18.00" routeLength="215.70" waitingTime="0.00" waitingCount="0" stopTime="0.00" timeLoss="9.20" rerouteNo="0" devices="tripinfo_flow_3.3 routing_flow_3.3" vType="DEFAULT_VEHTYPE" speedFactor="0.89" vaporized=""/>
    <tripinfo id="flow_8.3" depart="33.00" departLane="gneE20_1" departPos="5.10" departSpeed="0.00" departDelay="27.00" arrival="48.00" arrivalLane="-gneE19_1" arrivalPos="100.00" arrivalSpeed="26.72" duration="15.00" routeLength="215.70" waitingTime="0.00" waitingCount="0" stopTime="0.00" timeLoss="7.01" rerouteNo="0" devices="tripinfo_flow_8.3 routing_flow_8.3" vType="DEFAULT_VEHTYPE" speedFactor="0.91" vaporized=""/>
    <tripinfo id="flow_1.2" depart="22.00" departLane="gneE20_1" departPos="5.10" departSpeed="0.00" departDelay="18.00" arrival="53.00" arrivalLane="-gneE21_2" arrivalPos="100.00" arrivalSpeed="20.92" duration="31.00" routeLength="214.26" waitingTime="3.00" waitingCount="2" stopTime="0.00" timeLoss="20.88" rerouteNo="0" devices="tripinfo_flow_1.2 routing_flow_1.2" vType="DEFAULT_VEHTYPE" speedFactor="0.87" vaporized=""/>
    <tripinfo id="flow_5.0" depart="0.00" departLane="gneE21_1" departPos="5.10" departSpeed="0.00" departDelay="0.00" arrival="56.00" arrivalLane="-gneE20_1" arrivalPos="100.00" arrivalSpeed="18.54" duration="56.00" routeLength="203.93" waitingTime="33.00" waitingCount="2" stopTime="0.00" timeLoss="47.86" rerouteNo="0" devices="tripinfo_flow_5.0 routing_flow_5.0" vType="DEFAULT_VEHTYPE" speedFactor="0.98" vaporized=""/>
    <tripinfo id="flow_5.1" depart="8.00" departLane="gneE21_1" departPos="5.10" departSpeed="0.00" departDelay="6.00" arrival="58.00" arrivalLane="-gneE20_2" arrivalPos="100.00" arrivalSpeed="21.67" duration="50.00" routeLength="209.09" waitingTime="24.00" waitingCount="1" stopTime="0.00" timeLoss="42.53" rerouteNo="0" devices="tripinfo_flow_5.1 routing_flow_5.1" vType="DEFAULT_VEHTYPE" speedFactor="1.10" vaporized=""/>
    <tripinfo id="flow_6.0" depart="3.00" departLane="gneE21_1" departPos="5.10" departSpeed="0.00" departDelay="3.00" arrival="59.00" arrivalLane="-gneE19_2" arrivalPos="100.00" arrivalSpeed="20.04" duration="56.00" routeLength="214.25" waitingTime="31.00" waitingCount="2" stopTime="0.00" timeLoss="48.86" rerouteNo="0" devices="tripinfo_flow_6.0 routing_flow_6.0" vType="DEFAULT_VEHTYPE" speedFactor="1.20" vaporized=""/>
    <tripinfo id="flow_7.0" depart="5.00" departLane="gneE21_1" departPos="5.10" departSpeed="0.00" departDelay="5.00" arrival="59.00" arrivalLane="-gneE20_1" arrivalPos="100.00" arrivalSpeed="19.41" duration="54.00" routeLength="203.93" waitingTime="28.00" waitingCount="1" stopTime="0.00" timeLoss="44.79" rerouteNo="0" devices="tripinfo_flow_7.0 routing_flow_7.0" vType="DEFAULT_VEHTYPE" speedFactor="0.90" vaporized=""/>
    <tripinfo id="flow_7.1" depart="13.00" departLane="gneE21_1" departPos="5.10" departSpeed="0.00" departDelay="11.00" arrival="61.00" arrivalLane="-gneE20_1" arrivalPos="100.00" arrivalSpeed="19.42" duration="48.00" routeLength="203.93" waitingTime="22.00" waitingCount="1" stopTime="0.00" timeLoss="40.06" rerouteNo="0" devices="tripinfo_flow_7.1 routing_flow_7.1" vType="DEFAULT_VEHTYPE" speedFactor="1.02" vaporized=""/>
    <tripinfo id="flow_6.1" depart="11.00" departLane="gneE21_1" departPos="5.10" departSpeed="0.00" departDelay="9.00" arrival="62.00" arrivalLane="-gneE19_2" arrivalPos="100.00" arrivalSpeed="21.66" duration="51.00" routeLength="214.25" waitingTime="24.00" waitingCount="1" stopTime="0.00" timeLoss="40.26" rerouteNo="0" devices="tripinfo_flow_6.1 routing_flow_6.1" vType="DEFAULT_VEHTYPE" speedFactor="0.87" vaporized=""/>
    <tripinfo id="flow_5.2" depart="16.00" departLane="gneE21_1" departPos="5.10" departSpeed="0.00" departDelay="12.00" arrival="64.00" arrivalLane="-gneE20_1" arrivalPos="100.00" arrivalSpeed="20.77" duration="48.00" routeLength="203.93" waitingTime="20.00" waitingCount="1" stopTime="0.00" timeLoss="40.35" rerouteNo="0" devices="tripinfo_flow_5.2 routing_flow_5.2" vType="DEFAULT_VEHTYPE" speedFactor="1.03" vaporized=""/>
    <tripinfo id="flow_6.2" depart="19.00" departLane="gneE21_1" departPos="5.10" departSpeed="0.00" departDelay="15.00" arrival="64.00" arrivalLane="-gneE19_2" arrivalPos="100.00" arrivalSpeed="20.20" duration="45.00" routeLength="214.25" waitingTime="17.00" waitingCount="1" stopTime="0.00" timeLoss="34.19" rerouteNo="0" devices="tripinfo_flow_6.2 routing_flow_6.2" vType="DEFAULT_VEHTYPE" speedFactor="0.81" vaporized=""/>
    <tripinfo id="flow_5.3" depart="24.00" departLane="gneE21_1" departPos="5.10" departSpeed="0.00" departDelay="18.00" arrival="65.00" arrivalLane="-gneE20_2" arrivalPos="100.00" arrivalSpeed="22.58" duration="41.00" routeLength="209.09" waitingTime="12.00" waitingCount="1" stopTime="0.00" timeLoss="33.16" rerouteNo="0" devices="tripinfo_flow_5.3 routing_flow_5.3" vType="DEFAULT_VEHTYPE" speedFactor="1.02" vaporized=""/>
    <tripinfo id="flow_7.2" depart="21.00" departLane="gneE21_1" departPos="5.10" departSpeed="0.00" departDelay="17.00" arrival="67.00" arrivalLane="-gneE20_1" arrivalPos="100.00" arrivalSpeed="21.15" duration="46.00" routeLength="203.93" waitingTime="16.00" waitingCount="1" stopTime="0.00" timeLoss="38.00" rerouteNo="0" devices="tripinfo_flow_7.2 routing_flow_7.2" vType="DEFAULT_VEHTYPE" speedFactor="1.11" vaporized=""/>
    <tripinfo id="flow_6.3" depart="27.00" departLane="gneE21_1" departPos="5.10" departSpeed="0.00" departDelay="21.00" arrival="70.00" arrivalLane="-gneE19_2" arrivalPos="100.00" arrivalSpeed="21.61" duration="43.00" routeLength="214.25" waitingTime="12.00" waitingCount="1" stopTime="0.00" timeLoss="33.83" rerouteNo="0" devices="tripinfo_flow_6.3 routing_flow_6.3" vType="DEFAULT_VEHTYPE" speedFactor="0.97" vaporized=""/>
    <tripinfo id="flow_7.3" depart="29.00" departLane="gneE21_1" departPos="5.10" departSpeed="0.00" departDelay="23.00" arrival="70.00" arrivalLane="-gneE20_1" arrivalPos="100.00" arrivalSpeed="20.78" duration="41.00" routeLength="203.93" waitingTime="11.00" waitingCount="1" stopTime="0.00" timeLoss="31.25" rerouteNo="0" devices="tripinfo_flow_7.3 routing_flow_7.3" vType="DEFAULT_VEHTYPE" speedFactor="0.88" vaporized=""/>
    <tripinfo id="flow_5.4" depart="32.00" departLane="gneE21_1" departPos="5.10" departSpeed="0.00" departDelay="24.00" arrival="72.00" arrivalLane="-gneE20_1" arrivalPos="100.00" arrivalSpeed="21.23" duration="40.00" routeLength="203.93" waitingTime="8.00" waitingCount="1" stopTime="0.00" timeLoss="32.44" rerouteNo="0" devices="tripinfo_flow_5.4 routing_flow_5.4" vType="DEFAULT_VEHTYPE" speedFactor="1.06" vaporized=""/>
    <tripinfo id="flow_6.4" depart="35.00" departLane="gneE21_1" departPos="5.10" departSpeed="0.00" departDelay="27.00" arrival="72.00" arrivalLane="-gneE19_2" arrivalPos="100.00" arrivalSpeed="21.07" duration="37.00" routeLength="214.25" waitingTime="5.00" waitingCount="1" stopTime="0.00" timeLoss="28.45" rerouteNo="0" devices="tripinfo_flow_6.4 routing_flow_6.4" vType="DEFAULT_VEHTYPE" speedFactor="1.04" vaporized=""/>
    <tripinfo id="flow_5.5" depart="40.00" departLane="gneE21_1" departPos="5.10" departSpeed="0.00" departDelay="30.00" arrival="73.00" arrivalLane="-gneE20_2" arrivalPos="100.00" arrivalSpeed="21.43" duration="33.00" routeLength="209.09" waitingTime="3.00" waitingCount="1" stopTime="0.00" timeLoss="25.79" rerouteNo="0" devices="tripinfo_flow_5.5 routing_flow_5.5" vType="DEFAULT_VEHTYPE" speedFactor="1.10" vaporized=""/>
    <tripinfo id="flow_7.4" depart="37.00" departLane="gneE21_1" departPos="5.10" departSpeed="0.00" departDelay="29.00" arrival="75.00" arrivalLane="-gneE20_1" arrivalPos="100.00" arrivalSpeed="20.85" duration="38.00" routeLength="203.93" waitingTime="6.00" waitingCount="1" stopTime="0.00" timeLoss="30.94" rerouteNo="0" devices="tripinfo_flow_7.4 routing_flow_7.4" vType="DEFAULT_VEHTYPE" speedFactor="1.12" vaporized=""/>
    <tripinfo id="flow_6.5" depart="43.00" departLane="gneE21_1" departPos="5.10" departSpeed="0.00" departDelay="33.00" arrival="76.00" arrivalLane="-gneE19_2" arrivalPos="100.00" arrivalSpeed="21.37" duration="33.00" routeLength="214.25" waitingTime="2.00" waitingCount="1" stopTime="0.00" timeLoss="25.06" rerouteNo="0" devices="tripinfo_flow_6.5 routing_flow_6.5" vType="DEFAULT_VEHTYPE" speedFactor="1.07" vaporized=""/>
    <tripinfo id="flow_7.5" depart="44.00" departLane="gneE21_1" departPos="5.10" departSpeed="0.00" departDelay="34.00" arrival="77.00" arrivalLane="-gneE20_1" arrivalPos="100.00" arrivalSpeed="19.66" duration="33.00" routeLength="203.93" waitingTime="0.00" waitingCount="0" stopTime="0.00" timeLoss="24.77" rerouteNo="0" devices="tripinfo_flow_7.5 routing_flow_7.5" vType="DEFAULT_VEHTYPE" speedFactor="1.03" vaporized=""/>
    <tripinfo id="flow_6.6" depart="50.00" departLane="gneE21_1" departPos="5.10" departSpeed="0.00" departDelay="38.00" arrival="79.00" arrivalLane="-gneE19_2" arrivalPos="100.00" arrivalSpeed="22.84" duration="29.00" routeLength="214.25" waitingTime="0.00" waitingCount="0" stopTime="0.00" timeLoss="18.69" rerouteNo="0" devices="tripinfo_flow_6.6 routing_flow_6.6" vType="DEFAULT_VEHTYPE" speedFactor="0.91" vaporized=""/>
    <tripinfo id="flow_5.7" depart="54.00" departLane="gneE21_1" departPos="5.10" departSpeed="0.00" departDelay="40.00" arrival="80.00" arrivalLane="-gneE20_2" arrivalPos="100.00" arrivalSpeed="21.93" duration="26.00" routeLength="209.09" waitingTime="0.00" waitingCount="0" stopTime="0.00" timeLoss="17.71" rerouteNo="0" devices="tripinfo_flow_5.7 routing_flow_5.7" vType="DEFAULT_VEHTYPE" speedFactor="1.04" vaporized=""/>
    <tripinfo id="flow_5.6" depart="47.00" departLane="gneE21_1" departPos="5.10" departSpeed="0.00" departDelay="35.00" arrival="81.00" arrivalLane="-gneE20_1" arrivalPos="100.00" arrivalSpeed="22.07" duration="34.00" routeLength="203.93" waitingTime="0.00" waitingCount="0" stopTime="0.00" timeLoss="24.45" rerouteNo="0" devices="tripinfo_flow_5.6 routing_flow_5.6" vType="DEFAULT_VEHTYPE" speedFactor="0.92" vaporized=""/>
    <tripinfo id="flow_7.6" depart="51.00" departLane="gneE21_1" departPos="5.10" departSpeed="0.00" departDelay="39.00" arrival="83.00" arrivalLane="-gneE20_1" arrivalPos="100.00" arrivalSpeed="19.42" duration="32.00" routeLength="203.93" waitingTime="0.00" waitingCount="0" stopTime="0.00" timeLoss="23.99" rerouteNo="0" devices="tripinfo_flow_7.6 routing_flow_7.6" vType="DEFAULT_VEHTYPE" speedFactor="0.99" vaporized=""/>
    <tripinfo id="flow_6.7" depart="55.00" departLane="gneE21_1" departPos="5.10" departSpeed="0.00" departDelay="41.00" arrival="83.00" arrivalLane="-gneE19_2" arrivalPos="100.00" arrivalSpeed="22.52" duration="28.00" routeLength="214.25" waitingTime="1.00" waitingCount="1" stopTime="0.00" timeLoss="20.55" rerouteNo="0" devices="tripinfo_flow_6.7 routing_flow_6.7" vType="DEFAULT_VEHTYPE" speedFactor="1.16" vaporized=""/>
    <tripinfo id="flow_7.7" depart="57.00" departLane="gneE21_1" departPos="5.10" departSpeed="0.00" departDelay="43.00" arrival="85.00" arrivalLane="-gneE20_1" arrivalPos="100.00" arrivalSpeed="21.38" duration="28.00" routeLength="203.93" waitingTime="0.00" waitingCount="0" stopTime="0.00" timeLoss="19.98" rerouteNo="0" devices="tripinfo_flow_7.7 routing_flow_7.7" vType="DEFAULT_VEHTYPE" speedFactor="1.06" vaporized=""/>
    <tripinfo id="flow_5.8" depart="60.00" departLane="gneE21_1" departPos="5.10" departSpeed="0.00" departDelay="44.00" arrival="86.00" arrivalLane="-gneE20_2" arrivalPos="100.00" arrivalSpeed="22.14" duration="26.00" routeLength="209.09" waitingTime="0.00" waitingCount="0" stopTime="0.00" timeLoss="17.74" rerouteNo="0" devices="tripinfo_flow_5.8 routing_flow_5.8" vType="DEFAULT_VEHTYPE" speedFactor="1.04" vaporized=""/>
    <tripinfo id="flow_6.8" depart="63.00" departLane="gneE21_1" departPos="5.10" departSpeed="0.00" departDelay="47.00" arrival="88.00" arrivalLane="-gneE19_2" arrivalPos="100.00" arrivalSpeed="22.45" duration="25.00" routeLength="214.25" waitingTime="0.00" waitingCount="0" stopTime="0.00" timeLoss="16.59" rerouteNo="0" devices="tripinfo_flow_6.8 routing_flow_6.8" vType="DEFAULT_VEHTYPE" speedFactor="1.06" vaporized=""/>
    <tripinfo id="flow_7.8" depart="64.00" departLane="gneE21_1" departPos="5.10" departSpeed="0.00" departDelay="48.00" arrival="88.00" arrivalLane="-gneE20_1" arrivalPos="100.00" arrivalSpeed="20.76" duration="24.00" routeLength="203.93" waitingTime="0.00" waitingCount="0" stopTime="0.00" timeLoss="15.52" rerouteNo="0" devices="tripinfo_flow_7.8 routing_flow_7.8" vType="DEFAULT_VEHTYPE" speedFactor="0.98" vaporized=""/>
    <tripinfo id="flow_6.9" depart="70.00" departLane="gneE21_1" departPos="5.10" departSpeed="0.00" departDelay="52.00" arrival="91.00" arrivalLane="-gneE19_2" arrivalPos="100.00" arrivalSpeed="20.99" duration="21.00" routeLength="214.25" waitingTime="0.00" waitingCount="0" stopTime="0.00" timeLoss="12.17" rerouteNo="0" devices="tripinfo_flow_6.9 routing_flow_6.9" vType="DEFAULT_VEHTYPE" speedFactor="1.01" vaporized=""/>
    <tripinfo id="flow_5.9" depart="67.00" departLane="gneE21_1" departPos="5.10" departSpeed="0.00" departDelay="49.00" arrival="92.00" arrivalLane="-gneE20_1" arrivalPos="100.00" arrivalSpeed="19.87" duration="25.00" routeLength="203.93" waitingTime="0.00" waitingCount="0" stopTime="0.00" timeLoss="15.94" rerouteNo="0" devices="tripinfo_flow_5.9 routing_flow_5.9" vType="DEFAULT_VEHTYPE" speedFactor="0.96" vaporized=""/>
    <tripinfo id="flow_7.9" depart="72.00" departLane="gneE21_1" departPos="5.10" departSpeed="0.00" departDelay="54.00" arrival="93.00" arrivalLane="-gneE20_2" arrivalPos="100.00" arrivalSpeed="21.00" duration="21.00" routeLength="209.09" waitingTime="0.00" waitingCount="0" stopTime="0.00" timeLoss="11.91" rerouteNo="0" devices="tripinfo_flow_7.9 routing_flow_7.9" vType="DEFAULT_VEHTYPE" speedFactor="0.88" vaporized=""/>
    <tripinfo id="flow_5.10" depart="75.00" departLane="gneE21_1" departPos="5.10" departSpeed="0.00" departDelay="55.00" arrival="95.00" arrivalLane="-gneE20_1" arrivalPos="100.00" arrivalSpeed="18.88" duration="20.00" routeLength="203.93" waitingTime="0.00" waitingCount="0" stopTime="0.00" timeLoss="11.99" rerouteNo="0" devices="tripinfo_flow_5.10 routing_flow_5.10" vType="DEFAULT_VEHTYPE" speedFactor="1.04" vaporized=""/>
    <tripinfo id="flow_6.10" depart="78.00" departLane="gneE21_1" departPos="5.10" departSpeed="0.00" departDelay="58.00" arrival="98.00" arrivalLane="-gneE19_2" arrivalPos="100.00" arrivalSpeed="22.10" duration="20.00" routeLength="214.25" waitingTime="0.00" waitingCount="0" stopTime="0.00" timeLoss="9.67" rerouteNo="0" devices="tripinfo_flow_6.10 routing_flow_6.10" vType="DEFAULT_VEHTYPE" speedFactor="0.88" vaporized=""/>
    <personinfo id="personFlow_0.0" depart="10.00" type="DEFAULT_PEDTYPE">
        <walk depart="10.00" departPos="0.00" arrival="100.00" arrivalPos="50.00" duration="90.00" routeLength="68.05" timeLoss="49.18" maxSpeed="1.67"/>
    </personinfo>
    <personinfo id="personFlow_1.0" depart="12.00" type="DEFAULT_PEDTYPE">
        <walk depart="12.00" departPos="0.00" arrival="100.00" arrivalPos="50.00" duration="88.00" routeLength="68.05" timeLoss="37.07" maxSpeed="1.34"/>
    </personinfo>
    <tripinfo id="flow_0.4" depart="36.00" departLane="gneE20_1" departPos="5.10" departSpeed="0.00" departDelay="28.00" arrival="100.00" arrivalLane="-gneE19_1" arrivalPos="100.00" arrivalSpeed="22.05" duration="64.00" routeLength="215.70" waitingTime="40.00" waitingCount="1" stopTime="0.00" timeLoss="56.59" rerouteNo="0" devices="tripinfo_flow_0.4 routing_flow_0.4" vType="DEFAULT_VEHTYPE" speedFactor="1.02" vaporized=""/>
    <tripinfo id="flow_2.4" depart="36.00" departLane="gneE19_1" departPos="5.10" departSpeed="0.00" departDelay="28.00" arrival="100.00" arrivalLane="-gneE21_1" arrivalPos="100.00" arrivalSpeed="22.21" duration="64.00" routeLength="203.93" waitingTime="39.00" waitingCount="1" stopTime="0.00" timeLoss="56.90" rerouteNo="0" devices="tripinfo_flow_2.4 routing_flow_2.4" vType="DEFAULT_VEHTYPE" speedFactor="1.15" vaporized=""/>
    <tripinfo id="flow_4.3" depart="33.00" departLane="gneE19_1" departPos="5.10" departSpeed="0.00" departDelay="27.00" arrival="102.00" arrivalLane="-gneE20_2" arrivalPos="100.00" arrivalSpeed="20.97" duration="69.00" routeLength="215.70" waitingTime="43.00" waitingCount="1" stopTime="0.00" timeLoss="61.49" rerouteNo="0" devices="tripinfo_flow_4.3 routing_flow_4.3" vType="DEFAULT_VEHTYPE" speedFactor="0.99" vaporized=""/>
    <tripinfo id="flow_3.4" depart="39.00" departLane="gneE19_1" departPos="5.10" departSpeed="0.00" departDelay="31.00" arrival="102.00" arrivalLane="-gneE20_1" arrivalPos="100.00" arrivalSpeed="22.92" duration="63.00" routeLength="215.70" waitingTime="39.00" waitingCount="1" stopTime="0.00" timeLoss="54.99" rerouteNo="0" devices="tripinfo_flow_3.4 routing_flow_3.4" vType="DEFAULT_VEHTYPE" speedFactor="0.98" vaporized=""/>
    <tripinfo id="flow_8.4" depart="41.00" departLane="gneE20_1" departPos="5.10" departSpeed="0.00" departDelay="33.00" arrival="102.00" arrivalLane="-gneE19_1" arrivalPos="100.00" arrivalSpeed="22.91" duration="61.00" routeLength="215.70" waitingTime="36.00" waitingCount="1" stopTime="0.00" timeLoss="53.97" rerouteNo="0" devices="tripinfo_flow_8.4 routing_flow_8.4" vType="DEFAULT_VEHTYPE" speedFactor="1.12" vaporized=""/>
    <tripinfo id="flow_0.5" depart="44.00" departLane="gneE20_1" departPos="5.10" departSpeed="0.00" departDelay="34.00" arrival="103.00" arrivalLane="-gneE19_1" arrivalPos="100.00" arrivalSpeed="23.91" duration="59.00" routeLength="215.70" waitingTime="35.00" waitingCount="1" stopTime="0.00" timeLoss="52.00" rerouteNo="0" devices="tripinfo_flow_0.5 routing_flow_0.5" vType="DEFAULT_VEHTYPE" speedFactor="1.08" vaporized=""/>
    <tripinfo id="flow_2.5" depart="45.00" departLane="gneE19_1" departPos="5.10" departSpeed="0.00" departDelay="35.00" arrival="104.00" arrivalLane="-gneE21_1" arrivalPos="100.00" arrivalSpeed="21.90" duration="59.00" routeLength="203.93" waitingTime="36.00" waitingCount="1" stopTime="0.00" timeLoss="52.11" rerouteNo="0" devices="tripinfo_flow_2.5 routing_flow_2.5" vType="DEFAULT_VEHTYPE" speedFactor="1.11" vaporized=""/>
    <tripinfo id="flow_4.4" depart="42.00" departLane="gneE19_1" departPos="5.10" departSpeed="0.00" departDelay="34.00" arrival="105.00" arrivalLane="-gneE20_2" arrivalPos="100.00" arrivalSpeed="23.03" duration="63.00" routeLength="215.70" waitingTime="35.00" waitingCount="1" stopTime="0.00" timeLoss="54.87" rerouteNo="0" devices="tripinfo_flow_4.4 routing_flow_4.4" vType="DEFAULT_VEHTYPE" speedFactor="0.97" vaporized=""/>
    <tripinfo id="flow_8.5" depart="49.00" departLane="gneE20_1" departPos="5.10" departSpeed="0.00" departDelay="39.00" arrival="105.00" arrivalLane="-gneE19_1" arrivalPos="100.00" arrivalSpeed="25.42" duration="56.00" routeLength="215.70" waitingTime="32.00" waitingCount="1" stopTime="0.00" timeLoss="48.46" rerouteNo="0" devices="tripinfo_flow_8.5 routing_flow_8.5" vType="DEFAULT_VEHTYPE" speedFactor="1.06" vaporized=""/>
    <tripinfo id="flow_3.5" depart="48.00" departLane="gneE19_1" departPos="5.10" departSpeed="0.00" departDelay="38.00" arrival="106.00" arrivalLane="-gneE20_2" arrivalPos="100.00" arrivalSpeed="21.87" duration="58.00" routeLength="215.70" waitingTime="31.00" waitingCount="1" stopTime="0.00" timeLoss="50.59" rerouteNo="0" devices="tripinfo_flow_3.5 routing_flow_3.5" vType="DEFAULT_VEHTYPE" speedFactor="0.99" vaporized=""/>
    <tripinfo id="flow_8.6" depart="57.00" departLane="gneE20_1" departPos="5.10" departSpeed="0.00" departDelay="45.00" arrival="106.00" arrivalLane="-gneE19_1" arrivalPos="100.00" arrivalSpeed="22.62" duration="49.00" routeLength="215.70" waitingTime="26.00" waitingCount="1" stopTime="0.00" timeLoss="41.66" rerouteNo="0" devices="tripinfo_flow_8.6 routing_flow_8.6" vType="DEFAULT_VEHTYPE" speedFactor="0.99" vaporized=""/>
    <tripinfo id="flow_4.5" depart="51.00" departLane="gneE19_1" departPos="5.10" departSpeed="0.00" departDelay="41.00" arrival="108.00" arrivalLane="-gneE20_2" arrivalPos="100.00" arrivalSpeed="22.20" duration="57.00" routeLength="215.70" waitingTime="31.00" waitingCount="1" stopTime="0.00" timeLoss="50.31" rerouteNo="0" devices="tripinfo_flow_4.5 routing_flow_4.5" vType="DEFAULT_VEHTYPE" speedFactor="1.13" vaporized=""/>
    <tripinfo id="flow_2.6" depart="53.00" departLane="gneE19_1" departPos="5.10" departSpeed="0.00" departDelay="41.00" arrival="108.00" arrivalLane="-gneE21_1" arrivalPos="100.00" arrivalSpeed="21.58" duration="55.00" routeLength="203.93" waitingTime="26.00" waitingCount="1" stopTime="0.00" timeLoss="46.00" rerouteNo="0" devices="tripinfo_flow_2.6 routing_flow_2.6" vType="DEFAULT_VEHTYPE" speedFactor="0.95" vaporized=""/>